[Molden Format]
[Geometries] (XYZ)
16

C       -1.032798      -1.492297       0.041794
C       -1.805297      -0.590905      -0.548054
C       -1.988940       0.788575      -0.094559
C       -1.086846       1.518246       0.548252
C        2.991282      -0.332358       0.531224
C        2.439602       0.162848      -0.563838
H       -2.387879      -0.885099      -1.413621
H       -0.469980      -1.253811       0.934579
H       -0.943402      -2.497908      -0.344873
H        3.872994       0.110327       0.978529
H        2.580528      -1.205316       1.025636
H        1.549741      -0.277911      -0.998087
H        2.850979       1.032630      -1.061625
H       -1.304292       2.531606       0.855538
H       -0.093328       1.146318       0.761670
H       -2.945357       1.237884      -0.338138
16

C       -0.808510      -1.430907       0.059644
C       -1.603416      -0.574688      -0.544234
C       -1.812528       0.772328      -0.104774
C       -0.880934       1.448181       0.521325
C        2.621741      -0.337285       0.533320
C        2.099897       0.179495      -0.554711
H       -2.172086      -0.894722      -1.408943
H       -0.257792      -1.176676       0.952845
H       -0.686568      -2.433820      -0.323171
H        3.499846       0.119899       0.973142
H        2.209148      -1.211743       1.021070
H        1.212865      -0.246363      -1.003251
H        2.522400       1.052279      -1.034324
H       -1.049459       2.460916       0.856075
H        0.099952       1.035970       0.702363
H       -2.767552       1.229965      -0.331949
[GEOCONV]
energy
0.0
2.9430541781694046
max-force
0.0
0.009361992101839522
max-step
1000.0
1000.0
