[Molden Format]
[Geometries] (XYZ)
16

C       -1.032798      -1.492297       0.041794
C       -1.805297      -0.590905      -0.548054
C       -1.988940       0.788575      -0.094559
C       -1.086846       1.518246       0.548252
C        2.991282      -0.332358       0.531224
C        2.439602       0.162848      -0.563838
H       -2.387879      -0.885099      -1.413621
H       -0.469980      -1.253811       0.934579
H       -0.943402      -2.497908      -0.344873
H        3.872994       0.110327       0.978529
H        2.580528      -1.205316       1.025636
H        1.549741      -0.277911      -0.998087
H        2.850979       1.032630      -1.061625
H       -1.304292       2.531606       0.855538
H       -0.093328       1.146318       0.761670
H       -2.945357       1.237884      -0.338138
16

C       -0.808510      -1.430907       0.059644
C       -1.603416      -0.574688      -0.544234
C       -1.812528       0.772328      -0.104774
C       -0.880934       1.448181       0.521325
C        2.621741      -0.337285       0.533320
C        2.099897       0.179495      -0.554711
H       -2.172086      -0.894722      -1.408943
H       -0.257792      -1.176676       0.952845
H       -0.686568      -2.433820      -0.323171
H        3.499846       0.119899       0.973142
H        2.209148      -1.211743       1.021070
H        1.212865      -0.246363      -1.003251
H        2.522400       1.052279      -1.034324
H       -1.049459       2.460916       0.856075
H        0.099952       1.035970       0.702363
H       -2.767552       1.229965      -0.331949
16

C       -0.576586      -1.404572       0.082988
C       -1.406346      -0.598687      -0.531640
C       -1.623284       0.769658      -0.120126
C       -0.669063       1.424355       0.506885
C        2.242971      -0.366177       0.518124
C        1.748444       0.210117      -0.560890
H       -1.953899      -0.952405      -1.399805
H       -0.062350      -1.102447       0.975157
H       -0.405953      -2.415796      -0.283570
H        3.108468       0.117807       0.962009
H        1.831223      -1.245005       0.989597
H        0.870942      -0.171701      -1.049278
H        2.208142       1.092106      -0.995465
H       -0.786299       2.444440       0.865263
H        0.271286       0.948102       0.716165
H       -2.570690       1.243035      -0.360989
16

C       -0.378328      -1.360996       0.138019
C       -1.230342      -0.602293      -0.534367
C       -1.457973       0.756692      -0.168077
C       -0.447137       1.338000       0.464241
C        1.882549      -0.396041       0.478914
C        1.411192       0.278380      -0.561796
H       -1.752543      -0.999357      -1.403816
H        0.071861      -1.019079       1.051784
H       -0.183071      -2.373861      -0.197198
H        2.749403       0.129806       0.898325
H        1.540374      -1.280837       0.985370
H        0.558085      -0.047560      -1.105084
H        1.904588       1.175774      -0.922855
H       -0.489729       2.344549       0.877806
H        0.427258       0.792503       0.730038
H       -2.379181       1.257150      -0.416879
16

C       -0.268567      -1.280974       0.187125
C       -1.180577      -0.669072      -0.603035
C       -1.330233       0.693874      -0.233324
C       -0.207049       1.112984       0.354808
C        1.562887      -0.378649       0.469631
C        1.082492       0.451781      -0.554820
H       -1.650783      -1.142791      -1.454797
H        0.001249      -0.779891       1.111238
H        0.032816      -2.284976      -0.052317
H        2.428675       0.230321       0.857065
H        1.413346      -1.277001       1.059350
H        0.236324       0.239802      -1.126883
H        1.682861       1.360577      -0.713034
H        0.076851       2.070273       0.836050
H        0.561716       0.368113       0.563024
H       -2.215003       1.278458      -0.385654
[GEOCONV]
energy
0.0
2.9430541781694046
13.021533134593483
57.00797834786863
135.57541832128845
max-force
0.0
0.009361992101839522
0.0072813475367424505
0.009188415758248887
0.009939808200690216
max-step
1000.0
1000.0
1000.0
1000.0
1000.0
